ITEM: TIMESTEP
0
ITEM: NUMBER OF ATOMS
16240
ITEM: BOX BOUNDS pp pp pp
0.0000000000000000e+00 6.6437455000000000e+01
0.0000000000000000e+00 7.5928520000000006e+01
0.0000000000000000e+00 3.4956150000000001e+01
ITEM: ATOMS id q
1 0.815125
2 -0.436536
3 -0.419999
4 -0.466597
5 0.268333
6 0.233731
7 0.0198245
13 0.214651
14 0.0114699
15 0.806192
16 -0.45008
17 -0.423117
18 -0.467104
19 0.264712
20 0.229093
21 0.0183975
28 0.0250835
29 -0.0236526
396 -0.459908
3242 0.81009
3243 -0.44248
3244 -0.451598
16212 0.0360318
16216 -0.442089
16217 0.260407
16218 0.23822
8 0.785977
9 -0.426748
10 -0.409938
11 -0.454789
12 0.260642
27 0.231233
48 -0.459908
2893 0.0311303
2894 0.81009
2895 -0.44248
2896 -0.451598
2897 -0.440399
2898 0.279977
2899 0.240164
2900 -0.0147419
15864 0.0360317
15869 0.260407
15870 0.23822
15872 0.812601
15873 -0.438242
15874 -0.461272
59 0.815125
61 -0.419999
62 -0.466597
15868 -0.442089
60 -0.436536
63 0.268333
64 0.233731
65 0.0198245
66 0.785977
67 -0.426748
68 -0.409938
69 -0.454789
70 0.260642
71 0.214651
72 0.0114699
73 0.806192
74 -0.45008
75 -0.423117
76 -0.467104
77 0.264712
78 0.229093
79 0.0183974
85 0.231233
86 0.0250834
87 -0.0236527
2955 -0.440399
2956 0.279977
2957 0.240164
15930 0.812601
15931 -0.438242
15932 -0.461272
106 -0.459908
2951 0.0311302
2952 0.81009
2953 -0.44248
2954 -0.451598
2958 -0.0147419
15922 0.0360316
15926 -0.442089
15927 0.260407
15928 0.23822
117 0.815124
118 -0.436536
119 -0.419999
120 -0.466597
121 0.268333
122 0.233731
130 0.0114697
131 0.806192
134 -0.467105
135 0.264712
136 0.229093
144 0.0250833
145 -0.0236528
123 0.0198243
124 0.785977
125 -0.426748
126 -0.409938
127 -0.454789
128 0.260642
129 0.214651
132 -0.45008
133 -0.423117
137 0.0183973
143 0.231233
164 -0.459908
3009 0.0311302
3010 0.81009
3011 -0.44248
3012 -0.451598
3013 -0.440399
3014 0.279977
3015 0.240164
3016 -0.014742
15980 0.0360316
15986 0.23822
15988 0.812601
15989 -0.438242
15990 -0.461272
177 -0.419999
178 -0.466597
15984 -0.442089
15985 0.260407
175 0.815124
176 -0.436536
179 0.268333
180 0.233731
181 0.0198245
182 0.785977
183 -0.426748
186 0.260642
187 0.214651
188 0.0114699
189 0.806192
190 -0.45008
191 -0.423117
192 -0.467105
193 0.264712
194 0.229093
195 0.0183975
201 0.231233
202 0.0250834
203 -0.0236526
16046 0.812601
16048 -0.461272
184 -0.409938
185 -0.454789
222 -0.459908
3067 0.0311303
3068 0.81009
3069 -0.44248
3070 -0.451598
3071 -0.440399
3072 0.279977
3073 0.240164
3074 -0.0147418
16038 0.0360318
16042 -0.442089
16043 0.260407
16044 0.23822
16047 -0.438242
233 0.815125
234 -0.436536
235 -0.419999
236 -0.466597
237 0.268333
238 0.233731
246 0.0114699
250 -0.467104
251 0.264712
252 0.229093
260 0.0250835
239 0.0198245
240 0.785977
241 -0.426748
242 -0.409938
243 -0.454789
244 0.260642
245 0.214651
247 0.806192
248 -0.45008
249 -0.423117
253 0.0183975
259 0.231233
261 -0.0236526
3125 0.0311302
3126 0.81009
3127 -0.44248
3129 -0.440399
3130 0.279977
3131 0.240164
3132 -0.0147419
16102 0.23822
16104 0.812601
16105 -0.438242
16106 -0.461272
280 -0.459908
3128 -0.451598
16096 0.0360317
16100 -0.442089
16101 0.260407
291 0.815125
292 -0.436536
293 -0.419999
294 -0.466597
295 0.268333
296 0.233731
297 0.0198246
299 -0.426748
302 0.260642
303 0.214651
304 0.0114699
305 0.806192
306 -0.45008
307 -0.423117
308 -0.467104
309 0.264712
310 0.229093
311 0.0183975
317 0.231233
318 0.0250835
319 -0.0236526
16162 0.812602
16164 -0.461271
298 0.785978
300 -0.409938
301 -0.454789
338 -0.459908
3183 0.0311304
3184 0.81009
3185 -0.44248
3186 -0.451598
3187 -0.440399
3188 0.279977
3189 0.240164
3190 -0.0147417
16154 0.0360319
16158 -0.442089
16159 0.260407
16160 0.23822
16163 -0.438242
349 0.815125
350 -0.436536
351 -0.419999
352 -0.466597
353 0.268333
368 0.229093
354 0.233731
355 0.0198246
356 0.785977
357 -0.426748
358 -0.409938
359 -0.454789
360 0.260642
361 0.214651
362 0.01147
363 0.806192
364 -0.45008
365 -0.423117
366 -0.467104
367 0.264712
369 0.0183975
375 0.231233
376 0.0250835
377 -0.0236526
3241 0.0311303
3245 -0.440399
3246 0.279977
3247 0.240164
3248 -0.0147418
16220 0.812601
16221 -0.438242
16222 -0.461272
22 0.814513
23 -0.440735
25 -0.458315
26 0.276903
13016 -0.42997
421 0.806192
422 -0.45008
423 -0.423117
424 -0.467104
425 0.264712
392 0.0353993
397 0.26449
398 0.227899
400 0.81009
401 -0.44248
402 -0.451598
13370 0.0360318
13371 0.790371
13372 -0.452227
13373 -0.439937
13374 -0.442089
13375 0.260407
13376 0.23822
44 0.0353992
45 0.829471
46 -0.451753
47 -0.446937
49 0.26449
50 0.227899
51 0.0311302
52 0.81009
53 -0.44248
54 -0.451598
56 0.279977
57 0.240164
58 -0.0147418
13022 0.0360317
13024 -0.452228
13027 0.260407
13028 0.23822
13029 0.047257
13030 0.812601
13031 -0.438242
13032 -0.461272
13033 -0.437022
13034 0.271374
13035 0.235425
13023 0.790371
13025 -0.439937
13026 -0.442089
80 0.814513
81 -0.440735
83 -0.458315
84 0.276903
105 -0.446937
114 0.279977
115 0.240164
13074 -0.42997
13087 0.047257
13088 0.812601
13089 -0.438242
13090 -0.461272
13091 -0.437022
13092 0.271374
479 0.806192
480 -0.45008
481 -0.423117
482 -0.467105
483 0.264712
102 0.0353991
103 0.829471
104 -0.451753
107 0.26449
108 0.227899
109 0.0311302
110 0.81009
111 -0.44248
112 -0.451598
116 -0.0147419
13080 0.0360316
13081 0.790371
13082 -0.452228
13083 -0.439937
13084 -0.442089
13085 0.260407
13086 0.23822
13093 0.235425
138 0.814513
139 -0.440735
13132 -0.42997
537 0.806192
540 -0.467105
541 0.264712
141 -0.458315
142 0.276903
160 0.035399
161 0.829471
162 -0.451753
163 -0.446937
165 0.26449
166 0.227899
167 0.03113
168 0.81009
169 -0.442481
170 -0.451598
172 0.279977
173 0.240163
174 -0.014742
13138 0.0360316
13140 -0.452228
13144 0.23822
13145 0.0472569
13146 0.812601
13147 -0.438242
13148 -0.461272
13149 -0.437023
13150 0.271374
13151 0.235425
538 -0.45008
539 -0.423117
13139 0.790371
13141 -0.439937
13142 -0.442089
13143 0.260407
196 0.814513
197 -0.440735
199 -0.458315
200 0.276903
13190 -0.42997
13204 0.812601
13206 -0.461272
13207 -0.437022
13208 0.271374
595 0.806192
596 -0.45008
597 -0.423117
598 -0.467105
599 0.264712
218 0.0353992
219 0.829471
220 -0.451753
221 -0.446937
223 0.26449
224 0.227899
225 0.0311302
226 0.81009
227 -0.44248
228 -0.451598
230 0.279977
231 0.240164
232 -0.0147418
13196 0.0360317
13197 0.790371
13198 -0.452227
13199 -0.439937
13200 -0.442089
13201 0.260407
13202 0.23822
13203 0.0472571
13205 -0.438242
13209 0.235425
255 -0.440735
13248 -0.42997
656 -0.467105
657 0.264712
254 0.814513
257 -0.458315
258 0.276903
276 0.0353992
277 0.829471
278 -0.451753
279 -0.446937
283 0.0311302
284 0.81009
285 -0.44248
288 0.279977
289 0.240164
290 -0.0147419
13260 0.23822
13261 0.047257
13262 0.812601
13263 -0.438242
13264 -0.461272
13265 -0.437022
13266 0.271374
13267 0.235425
653 0.806192
654 -0.45008
655 -0.423117
281 0.26449
282 0.227899
286 -0.451598
13254 0.0360317
13255 0.790371
13256 -0.452227
13257 -0.439937
13258 -0.442089
13259 0.260407
312 0.814513
313 -0.440735
315 -0.458315
316 0.276903
13306 -0.42997
13320 0.812602
13322 -0.461271
13323 -0.437022
711 0.806192
712 -0.45008
713 -0.423117
714 -0.467104
715 0.264712
334 0.0353993
335 0.829471
336 -0.451753
337 -0.446937
339 0.26449
340 0.227899
341 0.0311303
342 0.81009
343 -0.44248
344 -0.451598
346 0.279977
347 0.240164
348 -0.0147417
13312 0.0360318
13313 0.790371
13314 -0.452227
13315 -0.439937
13316 -0.442089
13317 0.260407
13318 0.23822
13319 0.0472572
13321 -0.438242
13324 0.271374
13325 0.235425
370 0.814513
371 -0.440735
373 -0.458315
374 0.276903
393 0.829471
394 -0.451753
395 -0.446937
399 0.0311303
404 0.279977
405 0.240164
406 -0.0147417
13364 -0.42997
13377 0.0472571
13378 0.812601
13379 -0.438242
13380 -0.461272
13381 -0.437022
13382 0.271374
13383 0.235425
769 0.806192
770 -0.45008
771 -0.423117
772 -0.467104
773 0.264712
407 0.815124
408 -0.436536
409 -0.419999
410 -0.466597
411 0.268333
412 0.233731
413 0.0198244
419 0.214651
420 0.0114698
426 0.229093
427 0.0183974
428 0.814513
429 -0.440735
431 -0.458315
432 0.276903
434 0.0250834
435 -0.0236527
13422 -0.42997
798 0.0353993
802 -0.459908
803 0.26449
804 0.227899
13777 0.790371
13778 -0.452227
13779 -0.439937
55 -0.440399
414 0.785977
415 -0.426748
416 -0.409938
417 -0.454789
418 0.260642
433 0.231233
450 0.0353993
451 0.829471
452 -0.451753
453 -0.446937
454 -0.459908
455 0.26449
456 0.227899
13430 -0.452227
13435 0.0472571
13439 -0.437022
13440 0.271374
13441 0.235425
465 0.815124
467 -0.419999
468 -0.466597
13429 0.790371
13431 -0.439937
113 -0.440399
466 -0.436536
469 0.268333
470 0.233731
471 0.0198244
472 0.785977
473 -0.426748
474 -0.409938
475 -0.454789
476 0.260642
477 0.214651
478 0.0114698
484 0.229093
485 0.0183974
486 0.814513
487 -0.440735
489 -0.458315
490 0.276903
491 0.231233
492 0.0250834
493 -0.0236527
511 -0.446937
13480 -0.42997
13493 0.047257
13497 -0.437022
13498 0.271374
508 0.0353991
509 0.829471
510 -0.451753
512 -0.459908
513 0.26449
514 0.227899
13487 0.790371
13488 -0.452228
13489 -0.439937
13499 0.235425
523 0.815124
524 -0.436536
525 -0.419999
526 -0.466597
527 0.268333
528 0.23373
536 0.0114696
542 0.229093
544 0.814513
545 -0.440735
550 0.0250832
551 -0.023653
13538 -0.42997
171 -0.440399
529 0.0198242
530 0.785977
531 -0.426748
532 -0.409938
533 -0.454789
534 0.260642
535 0.21465
543 0.0183972
547 -0.458315
548 0.276903
549 0.231233
566 0.035399
567 0.829471
568 -0.451753
569 -0.446937
570 -0.459908
571 0.26449
572 0.227899
13546 -0.452228
13551 0.0472569
13555 -0.437023
13556 0.271374
13557 0.235425
583 -0.419999
584 -0.466597
13545 0.790371
13547 -0.439937
581 0.815124
582 -0.436536
585 0.268333
586 0.23373
587 0.0198243
588 0.785977
589 -0.426748
592 0.260642
593 0.214651
594 0.0114697
600 0.229093
601 0.0183973
602 0.814513
603 -0.440735
605 -0.458315
606 0.276903
607 0.231233
608 0.0250832
609 -0.0236528
13596 -0.42997
13613 -0.437022
13614 0.271374
229 -0.440399
590 -0.409938
591 -0.454789
624 0.0353992
625 0.829471
626 -0.451753
627 -0.446937
628 -0.459908
629 0.26449
630 0.227899
13603 0.790371
13604 -0.452227
13605 -0.439937
13609 0.047257
13615 0.235425
639 0.815124
640 -0.436536
641 -0.419999
642 -0.466597
643 0.268333
644 0.233731
652 0.0114697
658 0.229093
661 -0.440735
666 0.0250833
13654 -0.42997
287 -0.440399
645 0.0198243
646 0.785977
647 -0.426748
648 -0.409938
649 -0.454789
650 0.260642
651 0.214651
659 0.0183973
660 0.814513
663 -0.458315
664 0.276903
665 0.231233
667 -0.0236528
682 0.0353992
683 0.829471
684 -0.451753
685 -0.446937
13667 0.047257
13671 -0.437022
13672 0.271374
13673 0.235425
686 -0.459908
687 0.26449
688 0.227899
13661 0.790371
13662 -0.452227
13663 -0.439937
697 0.815124
698 -0.436536
699 -0.419999
700 -0.466597
701 0.268333
702 0.233731
703 0.0198245
705 -0.426748
708 0.260642
709 0.214651
710 0.0114699
716 0.229093
717 0.0183975
718 0.814513
719 -0.440735
721 -0.458315
722 0.276903
723 0.231233
724 0.0250834
725 -0.0236526
13712 -0.42997
13729 -0.437022
345 -0.440399
704 0.785977
706 -0.409938
707 -0.454789
740 0.0353993
741 0.829471
742 -0.451753
743 -0.446937
744 -0.459908
745 0.26449
746 0.227899
13719 0.790371
13720 -0.452227
13721 -0.439937
13725 0.0472572
13730 0.271374
13731 0.235425
755 0.815125
756 -0.436536
757 -0.419999
758 -0.466597
759 0.268333
774 0.229093
403 -0.440399
760 0.233731
761 0.0198244
762 0.785977
763 -0.426748
764 -0.409938
765 -0.454789
766 0.260642
767 0.214651
768 0.0114698
775 0.0183974
776 0.814513
777 -0.440735
779 -0.458315
780 0.276903
781 0.231233
782 0.0250834
783 -0.0236527
799 0.829471
800 -0.451753
801 -0.446937
13770 -0.42997
13783 0.0472571
13787 -0.437022
13788 0.271374
13789 0.235425
813 0.815125
814 -0.436536
815 -0.419999
816 -0.466597
817 0.268333
818 0.233731
819 0.0198245
825 0.214651
826 0.01147
827 0.806192
828 -0.45008
829 -0.423117
830 -0.467104
831 0.264712
832 0.229093
833 0.0183975
840 0.0250835
841 -0.0236526
806 0.81009
807 -0.44248
808 -0.451598
13776 0.0360318
13780 -0.442089
13781 0.260407
13782 0.23822
1208 -0.459908
457 0.0311304
458 0.81009
459 -0.44248
460 -0.451598
461 -0.440399
462 0.279977
463 0.240164
464 -0.0147417
13428 0.0360318
13433 0.260407
13434 0.23822
13436 0.812601
13437 -0.438242
13438 -0.461271
820 0.785977
821 -0.426748
822 -0.409938
823 -0.454789
824 0.260642
839 0.231233
860 -0.459908
871 0.815125
873 -0.419999
874 -0.466597
13432 -0.442089
519 -0.440399
520 0.279977
521 0.240164
13494 0.812601
13495 -0.438242
13496 -0.461272
872 -0.436536
875 0.268333
876 0.233731
877 0.0198245
878 0.785977
879 -0.426748
880 -0.409938
881 -0.454789
882 0.260642
883 0.214651
884 0.0114699
885 0.806192
886 -0.45008
887 -0.423117
888 -0.467104
889 0.264712
890 0.229093
891 0.0183975
897 0.231233
898 0.0250834
899 -0.0236526
515 0.0311303
516 0.81009
517 -0.44248
518 -0.451598
522 -0.0147418
13486 0.0360317
13490 -0.442089
13491 0.260407
13492 0.23822
918 -0.459908
929 0.815124
930 -0.436536
931 -0.419999
932 -0.466597
933 0.268333
934 0.23373
942 0.0114697
943 0.806192
946 -0.467105
947 0.264712
948 0.229093
956 0.0250833
957 -0.0236528
573 0.0311301
574 0.81009
575 -0.44248
576 -0.451598
577 -0.440399
578 0.279977
579 0.240164
580 -0.014742
13544 0.0360316
13550 0.23822
13552 0.812601
13553 -0.438242
13554 -0.461272
935 0.0198243
936 0.785977
937 -0.426748
938 -0.409938
939 -0.454789
940 0.260642
941 0.214651
944 -0.45008
945 -0.423117
949 0.0183973
955 0.231233
976 -0.459908
989 -0.419999
990 -0.466597
13548 -0.442089
13549 0.260407
13610 0.812601
13612 -0.461272
987 0.815124
988 -0.436536
991 0.268333
992 0.233731
993 0.0198244
994 0.785977
995 -0.426748
998 0.260642
999 0.214651
1000 0.0114698
1001 0.806192
1002 -0.45008
1003 -0.423117
1004 -0.467105
1005 0.264712
1006 0.229093
1007 0.0183974
1013 0.231233
1014 0.0250833
1015 -0.0236527
631 0.0311303
632 0.81009
633 -0.44248
634 -0.451598
635 -0.440399
636 0.279977
637 0.240164
638 -0.0147418
13602 0.0360318
13606 -0.442089
13607 0.260407
13608 0.23822
13611 -0.438242
996 -0.409938
997 -0.454789
1034 -0.459908
1045 0.815125
1046 -0.436536
1047 -0.419999
1048 -0.466597
1049 0.268333
1050 0.233731
1058 0.0114699
1062 -0.467104
1063 0.264712
1064 0.229093
1072 0.0250834
689 0.0311303
690 0.81009
691 -0.44248
693 -0.440399
694 0.279977
695 0.240164
696 -0.0147418
13666 0.23822
13668 0.812601
13669 -0.438242
13670 -0.461272
1051 0.0198245
1052 0.785977
1053 -0.426748
1054 -0.409938
1055 -0.454789
1056 0.260642
1057 0.214651
1059 0.806192
1060 -0.45008
1061 -0.423117
1065 0.0183974
1071 0.231233
1073 -0.0236527
692 -0.451598
13660 0.0360318
13664 -0.442089
13665 0.260407
1092 -0.459908
13726 0.812602
13728 -0.461271
1103 0.815125
1104 -0.436536
1105 -0.419999
1106 -0.466597
1107 0.268333
1108 0.233731
1109 0.0198246
1111 -0.426748
1114 0.260642
1115 0.214651
1116 0.01147
1117 0.806192
1118 -0.45008
1119 -0.423117
1120 -0.467104
1121 0.264712
1122 0.229093
1123 0.0183975
1129 0.231233
1130 0.0250835
1131 -0.0236526
747 0.0311305
748 0.81009
749 -0.44248
750 -0.451598
751 -0.440399
752 0.279978
753 0.240164
754 -0.0147416
13718 0.0360319
13722 -0.442089
13723 0.260407
13724 0.23822
13727 -0.438242
1110 0.785977
1112 -0.409938
1113 -0.454789
1150 -0.459908
1161 0.815125
1162 -0.436536
1163 -0.419999
1164 -0.466597
1165 0.268333
1180 0.229093
805 0.0311304
809 -0.440399
810 0.279977
811 0.240164
812 -0.0147417
13784 0.812601
13785 -0.438242
13786 -0.461272
1166 0.233731
1167 0.0198245
1168 0.785977
1169 -0.426748
1170 -0.409938
1171 -0.454789
1172 0.260642
1173 0.214651
1174 0.0114699
1175 0.806192
1176 -0.45008
1177 -0.423117
1178 -0.467104
1179 0.264712
1181 0.0183975
1187 0.231233
1188 0.0250834
1189 -0.0236526
834 0.814513
835 -0.440735
837 -0.458315
838 0.276903
13828 -0.42997
1233 0.806192
1234 -0.45008
1235 -0.423117
1236 -0.467105
1237 0.264712
1204 0.0353993
1209 0.26449
1210 0.227899
1212 0.81009
1213 -0.44248
1214 -0.451598
14182 0.0360318
14183 0.790371
14184 -0.452227
14185 -0.439937
14186 -0.442089
14187 0.260407
14188 0.23822
856 0.0353992
857 0.829471
858 -0.451753
859 -0.446937
861 0.26449
862 0.227899
863 0.0311302
864 0.81009
865 -0.44248
866 -0.451598
868 0.279977
869 0.240164
870 -0.0147418
13834 0.0360317
13836 -0.452227
13839 0.260407
13840 0.23822
13841 0.0472571
13842 0.812601
13843 -0.438242
13844 -0.461272
13845 -0.437022
13846 0.271374
13847 0.235425
13835 0.790371
13837 -0.439937
13838 -0.442089
892 0.814513
893 -0.440735
895 -0.458315
896 0.276903
917 -0.446937
926 0.279977
927 0.240164
13886 -0.42997
13899 0.047257
13900 0.812601
13901 -0.438242
13902 -0.461272
13903 -0.437022
13904 0.271374
1291 0.806192
1292 -0.45008
1293 -0.423117
1294 -0.467104
1295 0.264712
914 0.0353991
915 0.829471
916 -0.451753
919 0.26449
920 0.227899
921 0.0311302
922 0.81009
923 -0.44248
924 -0.451598
928 -0.0147419
13892 0.0360316
13893 0.790371
13894 -0.452228
13895 -0.439937
13896 -0.442089
13897 0.260407
13898 0.23822
13905 0.235425
950 0.814513
951 -0.440735
13944 -0.42997
1349 0.806192
1352 -0.467105
1353 0.264712
953 -0.458315
954 0.276903
972 0.0353991
973 0.829471
974 -0.451753
975 -0.446937
977 0.26449
978 0.227899
979 0.0311301
980 0.81009
981 -0.44248
982 -0.451598
984 0.279977
985 0.240164
986 -0.014742
13950 0.0360316
13952 -0.452228
13956 0.23822
13957 0.0472569
13958 0.812601
13959 -0.438242
13960 -0.461272
13961 -0.437023
13962 0.271374
13963 0.235425
1350 -0.45008
1351 -0.423117
13951 0.790371
13953 -0.439937
13954 -0.442089
13955 0.260407
1008 0.814513
1009 -0.440735
1011 -0.458315
1012 0.276903
14002 -0.42997
14016 0.812601
14018 -0.461272
14019 -0.437022
14020 0.271374
1407 0.806192
1408 -0.45008
1409 -0.423117
1410 -0.467105
1411 0.264712
1030 0.0353992
1031 0.829471
1032 -0.451753
1033 -0.446937
1035 0.26449
1036 0.227899
1037 0.0311303
1038 0.81009
1039 -0.44248
1040 -0.451598
1042 0.279977
1043 0.240164
1044 -0.0147418
14008 0.0360318
14009 0.790371
14010 -0.452227
14011 -0.439937
14012 -0.442089
14013 0.260407
14014 0.23822
14015 0.0472571
14017 -0.438242
14021 0.235425
1067 -0.440735
14060 -0.42997
1468 -0.467105
1469 0.264712
1066 0.814513
1069 -0.458315
1070 0.276903
1088 0.0353991
1089 0.829471
1090 -0.451753
1091 -0.446937
1095 0.0311301
1096 0.81009
1097 -0.44248
1100 0.279977
1101 0.240164
1102 -0.0147419
14072 0.23822
14073 0.047257
14074 0.812601
14075 -0.438242
14076 -0.461272
14077 -0.437022
14078 0.271374
14079 0.235425
1465 0.806192
1466 -0.45008
1467 -0.423117
1093 0.26449
1094 0.227899
1098 -0.451598
14066 0.0360316
14067 0.790371
14068 -0.452228
14069 -0.439937
14070 -0.442089
14071 0.260407
1124 0.814513
1125 -0.440735
1127 -0.458315
1128 0.276903
14118 -0.42997
14132 0.812601
14134 -0.461272
14135 -0.437022
1523 0.806192
1524 -0.45008
1525 -0.423117
1526 -0.467105
1527 0.264712
1146 0.0353992
1147 0.829471
1148 -0.451753
1149 -0.446937
1151 0.26449
1152 0.227899
1153 0.0311302
1154 0.81009
1155 -0.44248
1156 -0.451598
1158 0.279977
1159 0.240164
1160 -0.0147418
14124 0.0360317
14125 0.790371
14126 -0.452227
14127 -0.439937
14128 -0.442089
14129 0.260407
14130 0.23822
14131 0.0472571
14133 -0.438242
14136 0.271374
14137 0.235425
1182 0.814513
1183 -0.440735
1185 -0.458315
1186 0.276903
1205 0.829471
1206 -0.451753
1207 -0.446937
1211 0.0311303
1216 0.279977
1217 0.240164
1218 -0.0147418
14176 -0.42997
14189 0.0472571
14190 0.812601
14191 -0.438242
14192 -0.461272
14193 -0.437022
14194 0.271374
14195 0.235425
1581 0.806192
1582 -0.45008
1583 -0.423117
1584 -0.467105
1585 0.264712
1219 0.815124
1220 -0.436536
1221 -0.419999
1222 -0.466597
1223 0.268333
1224 0.23373
1225 0.0198243
1231 0.214651
1232 0.0114697
1238 0.229093
1239 0.0183973
1240 0.814513
1241 -0.440735
1243 -0.458315
1244 0.276903
1246 0.0250833
1247 -0.0236528
14234 -0.42997
1610 0.0353991
1614 -0.459908
1615 0.26449
1616 0.227899
14589 0.790371
14590 -0.452228
14591 -0.439937
867 -0.440399
1226 0.785977
1227 -0.426748
1228 -0.409938
1229 -0.454789
1230 0.260642
1245 0.231233
1262 0.0353992
1263 0.829471
1264 -0.451753
1265 -0.446937
1266 -0.459908
1267 0.26449
1268 0.227899
14242 -0.452227
14247 0.047257
14251 -0.437022
14252 0.271374
14253 0.235425
1277 0.815124
1279 -0.419999
1280 -0.466597
14241 0.790371
14243 -0.439937
925 -0.440399
1278 -0.436536
1281 0.268333
1282 0.233731
1283 0.0198244
1284 0.785977
1285 -0.426748
1286 -0.409938
1287 -0.454789
1288 0.260642
1289 0.214651
1290 0.0114698
1296 0.229093
1297 0.0183974
1298 0.814513
1299 -0.440735
1301 -0.458315
1302 0.276903
1303 0.231233
1304 0.0250833
1305 -0.0236528
1323 -0.446937
14292 -0.42997
14305 0.0472571
14309 -0.437022
14310 0.271374
1320 0.0353992
1321 0.829471
1322 -0.451753
1324 -0.459908
1325 0.26449
1326 0.227899
14299 0.790371
14300 -0.452227
14301 -0.439937
14311 0.235425
1335 0.815124
1336 -0.436536
1337 -0.419999
1338 -0.466597
1339 0.268333
1340 0.23373
1348 0.0114696
1354 0.229093
1356 0.814513
1357 -0.440735
1362 0.0250832
1363 -0.0236529
14350 -0.42997
983 -0.440399
1341 0.0198242
1342 0.785977
1343 -0.426748
1344 -0.409938
1345 -0.454789
1346 0.260642
1347 0.21465
1355 0.0183972
1359 -0.458315
1360 0.276903
1361 0.231233
1378 0.0353991
1379 0.829471
1380 -0.451753
1381 -0.446937
1382 -0.459908
1383 0.26449
1384 0.227899
14358 -0.452228
14363 0.047257
14367 -0.437022
14368 0.271374
14369 0.235425
1395 -0.419999
1396 -0.466597
14357 0.790371
14359 -0.439937
1393 0.815124
1394 -0.436536
1397 0.268333
1398 0.233731
1399 0.0198244
1400 0.785977
1401 -0.426748
1404 0.260642
1405 0.214651
1406 0.0114697
1412 0.229093
1413 0.0183973
1414 0.814513
1415 -0.440735
1417 -0.458315
1418 0.276903
1419 0.231233
1420 0.0250833
1421 -0.0236528
14408 -0.42997
14425 -0.437022
14426 0.271374
1041 -0.440399
1402 -0.409938
1403 -0.454789
1436 0.0353993
1437 0.829471
1438 -0.451753
1439 -0.446937
1440 -0.459908
1441 0.26449
1442 0.227899
14415 0.790371
14416 -0.452227
14417 -0.439937
14421 0.0472571
14427 0.235425
1451 0.815124
1452 -0.436536
1453 -0.419999
1454 -0.466597
1455 0.268333
1456 0.23373
1464 0.0114697
1470 0.229093
1473 -0.440735
1478 0.0250833
14466 -0.42997
1099 -0.440399
1457 0.0198242
1458 0.785977
1459 -0.426748
1460 -0.409938
1461 -0.454789
1462 0.260642
1463 0.21465
1471 0.0183972
1472 0.814513
1475 -0.458315
1476 0.276903
1477 0.231233
1479 -0.0236529
1494 0.035399
1495 0.829471
1496 -0.451753
1497 -0.446937
14479 0.0472569
14483 -0.437022
14484 0.271374
14485 0.235425
1498 -0.459908
1499 0.264489
1500 0.227899
14473 0.790371
14474 -0.452228
14475 -0.439937
1509 0.815124
1510 -0.436536
1511 -0.419999
1512 -0.466597
1513 0.268333
1514 0.23373
1515 0.0198243
1517 -0.426748
1520 0.260642
1521 0.214651
1522 0.0114697
1528 0.229093
1529 0.0183972
1530 0.814513
1531 -0.440735
1533 -0.458315
1534 0.276903
1535 0.231233
1536 0.0250832
1537 -0.0236529
14524 -0.42997
14541 -0.437022
1157 -0.440399
1516 0.785977
1518 -0.409938
1519 -0.454789
1552 0.0353991
1553 0.829471
1554 -0.451753
1555 -0.446937
1556 -0.459908
1557 0.26449
1558 0.227899
14531 0.790371
14532 -0.452228
14533 -0.439937
14537 0.047257
14542 0.271374
14543 0.235425
1567 0.815124
1568 -0.436536
1569 -0.419999
1570 -0.466597
1571 0.268333
1586 0.229093
1215 -0.440399
1572 0.23373
1573 0.0198242
1574 0.785977
1575 -0.426748
1576 -0.409938
1577 -0.454789
1578 0.260642
1579 0.21465
1580 0.0114696
1587 0.0183972
1588 0.814513
1589 -0.440735
1591 -0.458315
1592 0.276903
1593 0.231233
1594 0.0250831
1595 -0.0236529
1611 0.829471
1612 -0.451753
1613 -0.446937
14582 -0.42997
14595 0.0472569
14599 -0.437023
14600 0.271374
14601 0.235425
1625 0.815125
1626 -0.436536
1627 -0.419999
1628 -0.466597
1629 0.268333
1630 0.233731
1631 0.0198246
1637 0.214651
1638 0.01147
1639 0.806192
1640 -0.45008
1641 -0.423117
1642 -0.467104
1643 0.264712
1644 0.229093
1645 0.0183976
1652 0.0250835
1653 -0.0236525
1618 0.81009
1619 -0.44248
1620 -0.451598
14588 0.0360317
14592 -0.442089
14593 0.260407
14594 0.23822
2020 -0.459908
1269 0.0311304
1270 0.81009
1271 -0.44248
1272 -0.451598
1273 -0.440399
1274 0.279977
1275 0.240164
1276 -0.0147418
14240 0.0360318
14245 0.260407
14246 0.23822
14248 0.812601
14249 -0.438242
14250 -0.461272
1632 0.785977
1633 -0.426748
1634 -0.409938
1635 -0.454789
1636 0.260642
1651 0.231233
1672 -0.459908
1683 0.815125
1685 -0.419999
1686 -0.466597
14244 -0.442089
1331 -0.440399
1332 0.279977
1333 0.240164
14306 0.812601
14307 -0.438242
14308 -0.461271
1684 -0.436536
1687 0.268333
1688 0.233731
1689 0.0198247
1690 0.785978
1691 -0.426748
1692 -0.409938
1693 -0.454789
1694 0.260642
1695 0.214651
1696 0.0114701
1697 0.806192
1698 -0.45008
1699 -0.423117
1700 -0.467104
1701 0.264712
1702 0.229093
1703 0.0183977
1709 0.231234
1710 0.0250836
1711 -0.0236524
1327 0.0311304
1328 0.81009
1329 -0.44248
1330 -0.451598
1334 -0.0147418
14298 0.0360318
14302 -0.442089
14303 0.260407
14304 0.23822
1730 -0.459908
1741 0.815125
1742 -0.436536
1743 -0.419999
1744 -0.466597
1745 0.268333
1746 0.233731
1754 0.0114699
1755 0.806192
1758 -0.467104
1759 0.264712
1760 0.229093
1768 0.0250835
1769 -0.0236526
1385 0.0311303
1386 0.81009
1387 -0.44248
1388 -0.451598
1389 -0.440399
1390 0.279977
1391 0.240164
1392 -0.0147418
14356 0.0360318
14362 0.23822
14364 0.812601
14365 -0.438242
14366 -0.461272
1747 0.0198245
1748 0.785977
1749 -0.426748
1750 -0.409938
1751 -0.454789
1752 0.260642
1753 0.214651
1756 -0.45008
1757 -0.423117
1761 0.0183975
1767 0.231233
1788 -0.459908
1801 -0.419999
1802 -0.466597
14360 -0.442089
14361 0.260407
14422 0.812601
14424 -0.461271
1799 0.815125
1800 -0.436536
1803 0.268333
1804 0.233731
1805 0.0198247
1806 0.785978
1807 -0.426748
1810 0.260642
1811 0.214651
1812 0.01147
1813 0.806192
1814 -0.45008
1815 -0.423117
1816 -0.467104
1817 0.264712
1818 0.229093
1819 0.0183977
1825 0.231234
1826 0.0250836
1827 -0.0236525
1443 0.0311304
1444 0.810091
1445 -0.44248
1446 -0.451598
1447 -0.440399
1448 0.279978
1449 0.240164
1450 -0.0147417
14414 0.0360318
14418 -0.442089
14419 0.260407
14420 0.23822
14423 -0.438242
1808 -0.409937
1809 -0.454789
1846 -0.459908
1857 0.815125
1858 -0.436536
1859 -0.419999
1860 -0.466597
1861 0.268333
1862 0.233731
1870 0.01147
1874 -0.467104
1875 0.264712
1876 0.229093
1884 0.0250836
1501 0.0311302
1502 0.81009
1503 -0.44248
1505 -0.440399
1506 0.279977
1507 0.240164
1508 -0.014742
14478 0.23822
14480 0.812601
14481 -0.438242
14482 -0.461272
1863 0.0198246
1864 0.785977
1865 -0.426748
1866 -0.409938
1867 -0.454789
1868 0.260642
1869 0.214651
1871 0.806192
1872 -0.45008
1873 -0.423117
1877 0.0183976
1883 0.231233
1885 -0.0236525
1504 -0.451598
14472 0.0360316
14476 -0.442089
14477 0.260407
1904 -0.459908
14538 0.812601
14540 -0.461272
1915 0.815125
1916 -0.436536
1917 -0.419999
1918 -0.466597
1919 0.268333
1920 0.233731
1921 0.0198246
1923 -0.426748
1926 0.260642
1927 0.214651
1928 0.0114699
1929 0.806192
1930 -0.45008
1931 -0.423117
1932 -0.467104
1933 0.264712
1934 0.229093
1935 0.0183976
1941 0.231233
1942 0.0250835
1943 -0.0236525
1559 0.0311303
1560 0.81009
1561 -0.44248
1562 -0.451598
1563 -0.440399
1564 0.279977
1565 0.240164
1566 -0.0147418
14530 0.0360317
14534 -0.442089
14535 0.260407
14536 0.23822
14539 -0.438242
1922 0.785977
1924 -0.409938
1925 -0.454789
1962 -0.459908
1973 0.815125
1974 -0.436536
1975 -0.419999
1976 -0.466597
1977 0.268333
1992 0.229093
1617 0.0311303
1621 -0.440399
1622 0.279977
1623 0.240164
1624 -0.0147418
14596 0.812601
14597 -0.438242
14598 -0.461272
1978 0.233731
1979 0.0198245
1980 0.785977
1981 -0.426748
1982 -0.409938
1983 -0.454789
1984 0.260642
1985 0.214651
1986 0.0114699
1987 0.806192
1988 -0.45008
1989 -0.423117
1990 -0.467105
1991 0.264712
1993 0.0183975
1999 0.231233
2000 0.0250834
2001 -0.0236527
1646 0.814513
1647 -0.440735
1649 -0.458315
1650 0.276903
14640 -0.42997
2045 0.806192
2046 -0.45008
2047 -0.423117
2048 -0.467105
2049 0.264712
2016 0.0353993
2021 0.26449
2022 0.227899
2024 0.81009
2025 -0.44248
2026 -0.451598
14994 0.0360318
14995 0.790371
14996 -0.452227
14997 -0.439937
14998 -0.442089
14999 0.260407
15000 0.23822
1668 0.0353993
1669 0.829471
1670 -0.451753
1671 -0.446937
1673 0.26449
1674 0.227899
1675 0.0311303
1676 0.81009
1677 -0.44248
1678 -0.451598
1680 0.279977
1681 0.240164
1682 -0.0147418
14646 0.0360318
14648 -0.452227
14651 0.260407
14652 0.23822
14653 0.0472571
14654 0.812601
14655 -0.438242
14656 -0.461272
14657 -0.437022
14658 0.271374
14659 0.235425
14647 0.790371
14649 -0.439937
14650 -0.442089
1704 0.814513
1705 -0.440735
1707 -0.458315
1708 0.276903
1729 -0.446937
1738 0.279977
1739 0.240164
14698 -0.42997
14711 0.0472572
14712 0.812602
14713 -0.438242
14714 -0.461271
14715 -0.437022
14716 0.271374
2103 0.806192
2104 -0.45008
2105 -0.423117
2106 -0.467104
2107 0.264712
1726 0.0353993
1727 0.829471
1728 -0.451753
1731 0.26449
1732 0.227899
1733 0.0311303
1734 0.81009
1735 -0.44248
1736 -0.451598
1740 -0.0147417
14704 0.0360318
14705 0.790371
14706 -0.452227
14707 -0.439937
14708 -0.442089
14709 0.260407
14710 0.23822
14717 0.235425
1762 0.814513
1763 -0.440735
14756 -0.42997
2161 0.806192
2164 -0.467105
2165 0.264712
1765 -0.458315
1766 0.276903
1784 0.0353993
1785 0.829471
1786 -0.451753
1787 -0.446937
1789 0.26449
1790 0.227899
1791 0.0311302
1792 0.81009
1793 -0.44248
1794 -0.451598
1796 0.279977
1797 0.240164
1798 -0.0147418
14762 0.0360318
14764 -0.452227
14768 0.23822
14769 0.0472571
14770 0.812601
14771 -0.438242
14772 -0.461272
14773 -0.437022
14774 0.271374
14775 0.235425
2162 -0.45008
2163 -0.423117
14763 0.790371
14765 -0.439937
14766 -0.442089
14767 0.260407
1820 0.814513
1821 -0.440735
1823 -0.458315
1824 0.276903
14814 -0.42997
14828 0.812602
14830 -0.461271
14831 -0.437022
14832 0.271374
2219 0.806192
2220 -0.45008
2221 -0.423117
2222 -0.467104
2223 0.264712
1842 0.0353994
1843 0.829472
1844 -0.451753
1845 -0.446937
1847 0.26449
1848 0.227899
1849 0.0311304
1850 0.81009
1851 -0.44248
1852 -0.451598
1854 0.279977
1855 0.240164
1856 -0.0147416
14820 0.036032
14821 0.790371
14822 -0.452227
14823 -0.439937
14824 -0.442089
14825 0.260407
14826 0.23822
14827 0.0472573
14829 -0.438242
14833 0.235425
1879 -0.440735
14872 -0.42997
2280 -0.467104
2281 0.264712
1878 0.814513
1881 -0.458315
1882 0.276903
1900 0.0353992
1901 0.829471