ITEM: TIMESTEP
0
ITEM: NUMBER OF ATOMS
16240
ITEM: BOX BOUNDS pp pp pp
0.0000000000000000e+00 6.6437455000000000e+01
0.0000000000000000e+00 7.5928520000000006e+01
0.0000000000000000e+00 3.4956150000000001e+01
ITEM: ATOMS id fx fy fz
1 20.6502 -86.8915 -19.3879
2 27.0833 6.72577 4.23786
3 14.7299 7.94147 10.2774
4 -34.2603 94.6202 13.5749
5 8.27285 -13.0015 -11.5958
6 9.14896 13.3293 -18.6335
7 1.08054 9.88266 -6.50951
13 -6.10756 -4.89187 -1.12525
14 -1.06584 -41.0184 -9.22895
15 4.53469 3.39249 -5.41274
16 -22.0203 33.5038 -20.3255
17 38.3492 -5.75747 28.1062
18 -49.3319 -6.46284 -13.4983
19 10.9401 24.2614 15.8405
20 10.863 -1.8108 -0.173468
21 -7.41051 37.4192 -33.14
28 -27.0741 -21.2107 18.8442
29 -3.45773 -3.37053 13.5458
396 26.11 -15.1074 -4.66736
3242 -50.118 -6.28438 57.3247
3243 33.6604 4.98919 -31.3772
3244 40.3739 4.9119 -39.6119
16212 6.99302 28.5666 -33.5635
16216 -49.2511 -144.2 40.6698
16217 -6.94805 -3.91991 7.87754
16218 -7.89888 1.58906 3.48326
8 40.3698 -30.4805 -39.8284
9 17.8394 -25.3977 -19.6042
10 -33.6237 -28.5198 48.5711
11 -34.7156 75.716 8.82863
12 -4.86708 6.19803 6.31927
27 23.9676 -12.4298 22.2705
48 26.11 -15.1075 -4.66735
2893 -23.5617 -11.5925 0.824091
2894 -50.118 -6.28436 57.3247
2895 33.6604 4.98917 -31.3772
2896 40.3739 4.91188 -39.6119
2897 -0.697625 4.86684 -10.7238
2898 0.971196 -13.0877 4.37121
2899 8.50183 -0.398289 7.39408
2900 9.02633 -10.2475 -11.8308
15864 6.99302 28.5666 -33.5635
15869 -6.94806 -3.9199 7.87755
15870 -7.89888 1.58907 3.48326
15872 -6.62011 -70.849 -49.612
15873 -10.8405 36.4878 44.1622
15874 -4.3858 -6.08773 6.26115
59 20.6502 -86.8915 -19.3879
61 14.7299 7.94145 10.2774
62 -34.2603 94.6202 13.5749
15868 -49.251 -144.2 40.6698
60 27.0833 6.72575 4.23786
63 8.27284 -13.0015 -11.5958
64 9.14895 13.3293 -18.6335
65 1.08054 9.88265 -6.50951
66 40.3698 -30.4805 -39.8284
67 17.8395 -25.3977 -19.6042
68 -33.6237 -28.5198 48.5711
69 -34.7156 75.716 8.82864
70 -4.86709 6.19804 6.31927
71 -6.10757 -4.89186 -1.12525
72 -1.06585 -41.0184 -9.22895
73 4.53467 3.39253 -5.41275
74 -22.0203 33.5038 -20.3255
75 38.3492 -5.75749 28.1062
76 -49.3319 -6.46287 -13.4983
77 10.9401 24.2615 15.8405
78 10.863 -1.81079 -0.173473
79 -7.4105 37.4192 -33.14
85 23.9675 -12.4298 22.2705
86 -27.0741 -21.2107 18.8442
87 -3.45773 -3.37053 13.5458
2955 -0.69764 4.86683 -10.7238
2956 0.971209 -13.0877 4.37121
2957 8.50184 -0.398279 7.39408
15930 -6.6201 -70.8489 -49.612
15931 -10.8406 36.4878 44.1622
15932 -4.3858 -6.08776 6.26115
106 26.11 -15.1075 -4.66736
2951 -23.5617 -11.5925 0.824092
2952 -50.118 -6.28435 57.3247
2953 33.6604 4.98916 -31.3772
2954 40.3739 4.91188 -39.6119
2958 9.02633 -10.2475 -11.8308
15922 6.99302 28.5666 -33.5635
15926 -49.2511 -144.2 40.6698
15927 -6.94805 -3.9199 7.87754
15928 -7.89887 1.58907 3.48326
117 20.6502 -86.8915 -19.3879
118 27.0833 6.72574 4.23786
119 14.7299 7.94145 10.2774
120 -34.2603 94.6202 13.5749
121 8.27286 -13.0015 -11.5958
122 9.14896 13.3293 -18.6335
130 -1.06585 -41.0184 -9.22895
131 4.53468 3.39253 -5.41274
134 -49.3319 -6.46287 -13.4983
135 10.9401 24.2615 15.8405
136 10.863 -1.81079 -0.173474
144 -27.0741 -21.2107 18.8442
145 -3.45773 -3.37053 13.5458
123 1.08054 9.88265 -6.50951
124 40.3697 -30.4805 -39.8284
125 17.8395 -25.3977 -19.6042
126 -33.6236 -28.5198 48.5711
127 -34.7156 75.716 8.82864
128 -4.86711 6.19804 6.31927
129 -6.10757 -4.89186 -1.12525
132 -22.0203 33.5038 -20.3255
133 38.3492 -5.75749 28.1062
137 -7.4105 37.4192 -33.14
143 23.9675 -12.4298 22.2705
164 26.1101 -15.1075 -4.66737
3009 -23.5617 -11.5925 0.824093
3010 -50.1181 -6.28435 57.3248
3011 33.6605 4.98916 -31.3772
3012 40.3739 4.91188 -39.6119
3013 -0.69759 4.86683 -10.7238
3014 0.971181 -13.0877 4.37121
3015 8.50182 -0.39828 7.39409
3016 9.02633 -10.2475 -11.8308
15980 6.99302 28.5666 -33.5635
15986 -7.8989 1.58907 3.48325
15988 -6.62014 -70.8489 -49.612
15989 -10.8405 36.4878 44.1622
15990 -4.38578 -6.08775 6.26115
177 14.7299 7.94145 10.2774
178 -34.2602 94.6202 13.5749
15984 -49.251 -144.2 40.6698
15985 -6.94809 -3.9199 7.87754
175 20.6501 -86.8915 -19.3879
176 27.0834 6.72575 4.23786
179 8.27281 -13.0015 -11.5958
180 9.14892 13.3293 -18.6335
181 1.08054 9.88266 -6.50951
182 40.3697 -30.4805 -39.8284
183 17.8395 -25.3977 -19.6042
186 -4.86711 6.19804 6.31928
187 -6.10759 -4.89186 -1.12525
188 -1.06585 -41.0184 -9.22895
189 4.53458 3.39254 -5.41272
190 -22.0202 33.5038 -20.3255
191 38.3493 -5.7575 28.1062
192 -49.3319 -6.46288 -13.4983
193 10.9401 24.2615 15.8405
194 10.863 -1.81079 -0.173465
195 -7.41051 37.4192 -33.14
201 23.9675 -12.4298 22.2705
202 -27.0741 -21.2107 18.8442
203 -3.45773 -3.37053 13.5458
16046 -6.62019 -70.8489 -49.612
16048 -4.38575 -6.08776 6.26114
184 -33.6236 -28.5198 48.5711
185 -34.7156 75.716 8.82863
222 26.11 -15.1075 -4.66737
3067 -23.5617 -11.5925 0.824091
3068 -50.118 -6.28432 57.3248
3069 33.6604 4.98915 -31.3772
3070 40.3739 4.91187 -39.6119
3071 -0.697602 4.86682 -10.7238
3072 0.97118 -13.0877 4.37122
3073 8.50181 -0.398276 7.39409
3074 9.02633 -10.2475 -11.8308
16038 6.99302 28.5666 -33.5635
16042 -49.2511 -144.2 40.6698
16043 -6.94804 -3.91989 7.87754
16044 -7.89888 1.58908 3.48327
16047 -10.8405 36.4878 44.1622
233 20.6502 -86.8915 -19.3879
234 27.0833 6.72574 4.23786
235 14.7299 7.94144 10.2774
236 -34.2603 94.6202 13.5749
237 8.27285 -13.0015 -11.5958
238 9.14896 13.3293 -18.6335
246 -1.06584 -41.0184 -9.22895
250 -49.332 -6.46287 -13.4983
251 10.9401 24.2615 15.8405
252 10.863 -1.81079 -0.173463
260 -27.0741 -21.2107 18.8442
239 1.08054 9.88266 -6.50951
240 40.3698 -30.4805 -39.8284
241 17.8395 -25.3977 -19.6042
242 -33.6236 -28.5198 48.5711
243 -34.7156 75.716 8.82864
244 -4.86709 6.19804 6.31927
245 -6.10756 -4.89187 -1.12525
247 4.53471 3.39253 -5.41271
248 -22.0203 33.5038 -20.3255
249 38.3492 -5.75749 28.1062
253 -7.4105 37.4192 -33.14
259 23.9675 -12.4298 22.2705
261 -3.45773 -3.37053 13.5458
3125 -23.5617 -11.5925 0.824093
3126 -50.1181 -6.28436 57.3248
3127 33.6604 4.98917 -31.3772
3129 -0.69761 4.86684 -10.7238
3130 0.971192 -13.0877 4.37122
3131 8.50183 -0.398281 7.39409
3132 9.02633 -10.2475 -11.8308
16102 -7.8989 1.58907 3.48326
16104 -6.6201 -70.8489 -49.612
16105 -10.8405 36.4878 44.1622
16106 -4.38581 -6.08775 6.26114
280 26.1101 -15.1075 -4.66737
3128 40.3739 4.91189 -39.6119
16096 6.99302 28.5666 -33.5635
16100 -49.251 -144.2 40.6698
16101 -6.94808 -3.9199 7.87754
291 20.6501 -86.8915 -19.3879
292 27.0834 6.72576 4.23786
293 14.7299 7.94146 10.2774
294 -34.2602 94.6202 13.5749
295 8.27281 -13.0015 -11.5958
296 9.14893 13.3293 -18.6335
297 1.08054 9.88266 -6.50952
299 17.8395 -25.3977 -19.6042
302 -4.86711 6.19803 6.31928
303 -6.10759 -4.89187 -1.12525
304 -1.06584 -41.0184 -9.22895
305 4.53459 3.39252 -5.41271
306 -22.0202 33.5038 -20.3255
307 38.3493 -5.75749 28.1062
308 -49.3319 -6.46287 -13.4983
309 10.9401 24.2614 15.8405
310 10.863 -1.81079 -0.173461
311 -7.41051 37.4192 -33.14
317 23.9675 -12.4298 22.2705
318 -27.0741 -21.2107 18.8442
319 -3.45773 -3.37053 13.5458
16162 -6.62018 -70.8489 -49.612
16164 -4.38576 -6.08775 6.26113
298 40.3698 -30.4805 -39.8284
300 -33.6236 -28.5198 48.5711
301 -34.7156 75.716 8.82863
338 26.11 -15.1075 -4.66737
3183 -23.5617 -11.5925 0.824091
3184 -50.118 -6.28435 57.3248
3185 33.6604 4.98917 -31.3772
3186 40.3739 4.91188 -39.6119
3187 -0.697606 4.86683 -10.7239
3188 0.971183 -13.0877 4.37122
3189 8.50181 -0.398284 7.39409
3190 9.02633 -10.2475 -11.8308
16154 6.99302 28.5666 -33.5635
16158 -49.2511 -144.2 40.6698
16159 -6.94804 -3.9199 7.87754
16160 -7.89888 1.58908 3.48327
16163 -10.8405 36.4878 44.1622
349 20.6502 -86.8915 -19.3879
350 27.0833 6.72576 4.23786
351 14.7299 7.94145 10.2774
352 -34.2603 94.6202 13.5749
353 8.27284 -13.0015 -11.5958
368 10.863 -1.81079 -0.173461
354 9.14895 13.3293 -18.6335
355 1.08054 9.88266 -6.50952
356 40.3698 -30.4805 -39.8284
357 17.8395 -25.3977 -19.6042
358 -33.6236 -28.5198 48.5711
359 -34.7156 75.7161 8.82863
360 -4.86709 6.19802 6.31928
361 -6.10757 -4.89188 -1.12526
362 -1.06584 -41.0184 -9.22895
363 4.53468 3.39249 -5.41272
364 -22.0203 33.5038 -20.3255
365 38.3492 -5.75747 28.1062
366 -49.3319 -6.46285 -13.4983
367 10.9401 24.2614 15.8405
369 -7.41051 37.4192 -33.14
375 23.9675 -12.4298 22.2705
376 -27.0741 -21.2107 18.8442
377 -3.45773 -3.37053 13.5458
3241 -23.5617 -11.5925 0.824091
3245 -0.697615 4.86685 -10.7238
3246 0.971188 -13.0877 4.37121
3247 8.50182 -0.398296 7.39408
3248 9.02633 -10.2475 -11.8308
16220 -6.62012 -70.849 -49.612
16221 -10.8405 36.4879 44.1622
16222 -4.3858 -6.08773 6.26114
22 -26.6818 1.59614 32.6031
23 -6.88036 -21.6287 4.26867
25 50.2055 12.0302 -13.9543
26 -11.7385 -12.1068 9.26025
13016 -7.85625 -15.4409 -20.9111
421 4.53469 3.39261 -5.41274
422 -22.0203 33.5038 -20.3255
423 38.3492 -5.75753 28.1062
424 -49.3319 -6.46293 -13.4983
425 10.9401 24.2615 15.8405
392 32.4246 64.1425 30.5349
397 -10.9659 4.73879 -18.0661
398 -7.17047 -22.7119 4.5079
400 -50.118 -6.28428 57.3247
401 33.6604 4.98911 -31.3772
402 40.3739 4.91185 -39.6119
13370 6.99302 28.5666 -33.5635
13371 44.9435 66.8177 -11.7045
13372 33.109 -31.0295 59.1445
13373 -26.1248 86.692 -66.8864
13374 -49.2511 -144.2 40.6698
13375 -6.94805 -3.91986 7.87754
13376 -7.89888 1.58911 3.48326
44 32.4246 64.1425 30.5349
45 38.5861 9.80549 50.0967
46 -25.7338 8.15901 -4.60385
47 -53.1698 -17.4866 -57.7898
49 -10.9659 4.73879 -18.0661
50 -7.17047 -22.7119 4.5079
51 -23.5617 -11.5925 0.824091
52 -50.118 -6.28433 57.3247
53 33.6604 4.98913 -31.3772
54 40.3739 4.91187 -39.6118
56 0.971192 -13.0877 4.3712
57 8.50183 -0.398254 7.39408
58 9.02633 -10.2475 -11.8308
13022 6.99302 28.5666 -33.5635
13024 33.1091 -31.0295 59.1446
13027 -6.94806 -3.91987 7.87754
13028 -7.89888 1.5891 3.48326
13029 -4.49894 -57.1504 -22.6898
13030 -6.62009 -70.8488 -49.612
13031 -10.8405 36.4878 44.1622
13032 -4.38581 -6.08781 6.26115
13033 15.4886 67.023 28.9955
13034 3.74614 4.41341 5.8191
13035 -6.89249 20.7523 8.44105
13023 44.9434 66.8177 -11.7045
13025 -26.1248 86.692 -66.8864
13026 -49.251 -144.2 40.6698
80 -26.6818 1.59612 32.6031
81 -6.88034 -21.6287 4.26868
83 50.2055 12.0302 -13.9543
84 -11.7385 -12.1068 9.26025
105 -53.1699 -17.4866 -57.7898
114 0.97122 -13.0877 4.3712
115 8.50185 -0.398257 7.39408
13074 -7.85623 -15.4409 -20.9111
13087 -4.49894 -57.1504 -22.6898
13088 -6.62009 -70.8488 -49.612
13089 -10.8406 36.4878 44.1622
13090 -4.38581 -6.0878 6.26115
13091 15.4886 67.023 28.9955
13092 3.74615 4.41341 5.8191
479 4.53468 3.39258 -5.41276
480 -22.0203 33.5038 -20.3255
481 38.3492 -5.75752 28.1062
482 -49.3319 -6.4629 -13.4983
483 10.9401 24.2615 15.8405
102 32.4246 64.1425 30.5349
103 38.5861 9.8055 50.0968
104 -25.7338 8.15901 -4.60386
107 -10.9659 4.73879 -18.0661
108 -7.17045 -22.7119 4.50791
109 -23.5617 -11.5925 0.824092
110 -50.118 -6.28431 57.3247
111 33.6604 4.98912 -31.3772
112 40.3738 4.91186 -39.6119
116 9.02633 -10.2475 -11.8308
13080 6.99302 28.5666 -33.5635
13081 44.9435 66.8177 -11.7045
13082 33.109 -31.0295 59.1446
13083 -26.1248 86.692 -66.8864
13084 -49.2511 -144.2 40.6698
13085 -6.94804 -3.91987 7.87755
13086 -7.89886 1.5891 3.48326
13093 -6.89248 20.7523 8.44105
138 -26.6818 1.59615 32.6031
139 -6.88037 -21.6287 4.26867
13132 -7.85625 -15.4409 -20.9111
537 4.53471 3.39263 -5.41274
540 -49.332 -6.46293 -13.4983
541 10.9401 24.2615 15.8405
141 50.2055 12.0302 -13.9543
142 -11.7385 -12.1068 9.26026
160 32.4246 64.1425 30.5349
161 38.586 9.80553 50.0968
162 -25.7338 8.15898 -4.60388
163 -53.1698 -17.4866 -57.7898
165 -10.966 4.73881 -18.0661
166 -7.1705 -22.7119 4.50792
167 -23.5617 -11.5925 0.824095
168 -50.1181 -6.28429 57.3248
169 33.6605 4.98911 -31.3772
170 40.3739 4.91184 -39.6119
172 0.971186 -13.0877 4.37121
173 8.50183 -0.398242 7.3941
174 9.02633 -10.2475 -11.8308
13138 6.99302 28.5666 -33.5635
13140 33.1091 -31.0295 59.1445
13144 -7.8989 1.5891 3.48326
13145 -4.49895 -57.1504 -22.6898
13146 -6.62012 -70.8488 -49.612
13147 -10.8405 36.4878 44.1622
13148 -4.38579 -6.08783 6.26113
13149 15.4886 67.023 28.9955
13150 3.74613 4.41342 5.81911
13151 -6.89252 20.7523 8.44105
538 -22.0203 33.5038 -20.3255
539 38.3492 -5.75754 28.1062
13139 44.9433 66.8178 -11.7045
13141 -26.1247 86.692 -66.8864
13142 -49.251 -144.2 40.6698
13143 -6.94809 -3.91986 7.87755
196 -26.6819 1.59616 32.6031
197 -6.8803 -21.6287 4.26866
199 50.2055 12.0302 -13.9543
200 -11.7385 -12.1068 9.26026
13190 -7.85618 -15.4409 -20.9111
13204 -6.62018 -70.8488 -49.612
13206 -4.38575 -6.08784 6.26113
13207 15.4886 67.023 28.9955
13208 3.74612 4.41342 5.8191
595 4.53458 3.39264 -5.41273
596 -22.0202 33.5038 -20.3255
597 38.3493 -5.75755 28.1062
598 -49.3319 -6.46294 -13.4983
599 10.9401 24.2615 15.8405
218 32.4246 64.1425 30.5349
219 38.5861 9.80552 50.0968
220 -25.7338 8.15899 -4.60387
221 -53.1698 -17.4866 -57.7898
223 -10.9659 4.7388 -18.0661
224 -7.17047 -22.7119 4.50791
225 -23.5617 -11.5925 0.824092
226 -50.1181 -6.28428 57.3248
227 33.6604 4.98911 -31.3772
228 40.3739 4.91184 -39.6119
230 0.971182 -13.0877 4.37121
231 8.50182 -0.398243 7.39409
232 9.02633 -10.2475 -11.8308
13196 6.99302 28.5666 -33.5635
13197 44.9435 66.8178 -11.7045
13198 33.109 -31.0295 59.1445
13199 -26.1248 86.692 -66.8864
13200 -49.2511 -144.2 40.6698
13201 -6.94805 -3.91986 7.87754
13202 -7.89888 1.58911 3.48326
13203 -4.49895 -57.1504 -22.6898
13205 -10.8405 36.4878 44.1622
13209 -6.8925 20.7523 8.44105
255 -6.88036 -21.6287 4.26866
13248 -7.85624 -15.4409 -20.9111
656 -49.3319 -6.46293 -13.4983
657 10.9401 24.2615 15.8405
254 -26.6818 1.59615 32.6031
257 50.2055 12.0302 -13.9543
258 -11.7385 -12.1068 9.26026
276 32.4246 64.1425 30.5349
277 38.586 9.8055 50.0968
278 -25.7338 8.159 -4.60387
279 -53.1698 -17.4866 -57.7898
283 -23.5617 -11.5925 0.824093
284 -50.1181 -6.28431 57.3248
285 33.6605 4.98913 -31.3772
288 0.971179 -13.0877 4.37121
289 8.50182 -0.398252 7.39409
290 9.02633 -10.2475 -11.8308
13260 -7.8989 1.5891 3.48326
13261 -4.49895 -57.1504 -22.6898
13262 -6.62013 -70.8488 -49.612
13263 -10.8405 36.4878 44.1622
13264 -4.38579 -6.08782 6.26114
13265 15.4886 67.023 28.9955
13266 3.74613 4.41342 5.8191
13267 -6.89251 20.7523 8.44105
653 4.53467 3.39262 -5.41273
654 -22.0203 33.5038 -20.3255
655 38.3492 -5.75754 28.1062
281 -10.9659 4.73879 -18.0661
282 -7.17049 -22.7119 4.50791
286 40.3739 4.91186 -39.6119
13254 6.99302 28.5666 -33.5635
13255 44.9434 66.8177 -11.7045
13256 33.1091 -31.0295 59.1446
13257 -26.1247 86.692 -66.8864
13258 -49.251 -144.2 40.6698
13259 -6.94808 -3.91987 7.87754
312 -26.6819 1.59613 32.6031
313 -6.8803 -21.6287 4.26866
315 50.2055 12.0302 -13.9543
316 -11.7385 -12.1068 9.26026
13306 -7.85618 -15.4409 -20.9111
13320 -6.62017 -70.8488 -49.612
13322 -4.38577 -6.08781 6.26113
13323 15.4886 67.023 28.9955
711 4.53461 3.39259 -5.41272
712 -22.0202 33.5038 -20.3255
713 38.3493 -5.75752 28.1062
714 -49.3319 -6.46291 -13.4983
715 10.9401 24.2615 15.8405
334 32.4246 64.1425 30.5349
335 38.5861 9.8055 50.0968
336 -25.7338 8.159 -4.60387
337 -53.1698 -17.4866 -57.7898
339 -10.9659 4.73879 -18.0661
340 -7.17046 -22.7119 4.50791
341 -23.5617 -11.5925 0.824092
342 -50.118 -6.28431 57.3248
343 33.6604 4.98912 -31.3772
344 40.3739 4.91186 -39.6119
346 0.971191 -13.0877 4.37122
347 8.50182 -0.398255 7.39409
348 9.02633 -10.2475 -11.8308
13312 6.99302 28.5666 -33.5635
13313 44.9435 66.8177 -11.7045
13314 33.109 -31.0295 59.1445
13315 -26.1248 86.692 -66.8864
13316 -49.2511 -144.2 40.6698
13317 -6.94804 -3.91986 7.87754
13318 -7.89888 1.58911 3.48327
13319 -4.49895 -57.1504 -22.6898
13321 -10.8405 36.4878 44.1622
13324 3.74612 4.41341 5.8191
13325 -6.8925 20.7523 8.44106
370 -26.6818 1.59615 32.6031
371 -6.88034 -21.6287 4.26866
373 50.2055 12.0302 -13.9543
374 -11.7385 -12.1068 9.26026
393 38.5861 9.80549 50.0968
394 -25.7338 8.159 -4.60386
395 -53.1698 -17.4866 -57.7898
399 -23.5617 -11.5925 0.824091
404 0.971183 -13.0877 4.37121
405 8.50182 -0.398246 7.39408
406 9.02633 -10.2475 -11.8308
13364 -7.85623 -15.4409 -20.9111
13377 -4.49895 -57.1504 -22.6898
13378 -6.62014 -70.8488 -49.612
13379 -10.8405 36.4878 44.1622
13380 -4.38578 -6.08783 6.26113
13381 15.4886 67.023 28.9955
13382 3.74612 4.41341 5.8191
13383 -6.8925 20.7523 8.44105
769 4.53466 3.39263 -5.41272
770 -22.0203 33.5038 -20.3255
771 38.3492 -5.75754 28.1062
772 -49.3319 -6.46293 -13.4983
773 10.9401 24.2615 15.8405
407 20.6502 -86.8915 -19.3879
408 27.0833 6.72574 4.23786
409 14.7299 7.94143 10.2774
410 -34.2603 94.6203 13.5749
411 8.27285 -13.0015 -11.5958
412 9.14896 13.3293 -18.6335
413 1.08054 9.88265 -6.50951
419 -6.10756 -4.89186 -1.12525
420 -1.06585 -41.0184 -9.22895
426 10.863 -1.81079 -0.173474
427 -7.4105 37.4192 -33.14
428 -26.6818 1.59603 32.6031
429 -6.88035 -21.6286 4.26868
431 50.2055 12.0302 -13.9543
432 -11.7385 -12.1069 9.26025
434 -27.0741 -21.2107 18.8442
435 -3.45773 -3.37053 13.5458
13422 -7.85624 -15.4409 -20.9111
798 32.4246 64.1425 30.5349
802 26.11 -15.1074 -4.66736
803 -10.9659 4.73875 -18.0661
804 -7.17047 -22.712 4.5079
13777 44.9434 66.8176 -11.7045
13778 33.109 -31.0294 59.1446
13779 -26.1248 86.6921 -66.8864
55 -0.697614 4.86683 -10.7238
414 40.3698 -30.4805 -39.8284
415 17.8395 -25.3977 -19.6042
416 -33.6236 -28.5197 48.5711
417 -34.7156 75.716 8.82865
418 -4.8671 6.19805 6.31926
433 23.9675 -12.4298 22.2705
450 32.4246 64.1425 30.5349
451 38.5861 9.8054 50.0967
452 -25.7338 8.15906 -4.60384
453 -53.1698 -17.4865 -57.7898
454 26.11 -15.1074 -4.66734
455 -10.9659 4.73876 -18.0661
456 -7.17047 -22.712 4.50789
13430 33.109 -31.0294 59.1446
13435 -4.49895 -57.1504 -22.6898
13439 15.4886 67.0231 28.9955
13440 3.74613 4.41338 5.81909
13441 -6.8925 20.7522 8.44104
465 20.6501 -86.8915 -19.388
467 14.7299 7.94145 10.2774
468 -34.2603 94.6203 13.5749
13429 44.9434 66.8176 -11.7045
13431 -26.1248 86.6921 -66.8864
113 -0.697658 4.86683 -10.7238
466 27.0833 6.72576 4.23787
469 8.27284 -13.0015 -11.5959
470 9.14895 13.3293 -18.6335
471 1.08054 9.88265 -6.50951
472 40.3698 -30.4805 -39.8284
473 17.8395 -25.3977 -19.6042
474 -33.6237 -28.5197 48.5711
475 -34.7157 75.716 8.82864
476 -4.86709 6.19804 6.31926
477 -6.10757 -4.89186 -1.12525
478 -1.06585 -41.0184 -9.22895
484 10.863 -1.8108 -0.17348
485 -7.4105 37.4192 -33.14
486 -26.6818 1.59605 32.603
487 -6.88035 -21.6286 4.26869
489 50.2055 12.0302 -13.9543
490 -11.7385 -12.1068 9.26025
491 23.9675 -12.4298 22.2705
492 -27.0741 -21.2107 18.8442
493 -3.45773 -3.37053 13.5458
511 -53.1699 -17.4865 -57.7898
13480 -7.85623 -15.4409 -20.9111
13493 -4.49894 -57.1504 -22.6898
13497 15.4886 67.0231 28.9955
13498 3.74615 4.41338 5.8191
508 32.4246 64.1425 30.5349
509 38.5862 9.80542 50.0967
510 -25.7339 8.15905 -4.60385
512 26.11 -15.1074 -4.66735
513 -10.9659 4.73876 -18.0661
514 -7.17045 -22.712 4.5079
13487 44.9435 66.8176 -11.7045
13488 33.109 -31.0294 59.1446
13489 -26.1248 86.6921 -66.8864
13499 -6.89248 20.7522 8.44105
523 20.6502 -86.8915 -19.3879
524 27.0833 6.72574 4.23785
525 14.7298 7.94145 10.2774
526 -34.2603 94.6203 13.5749
527 8.27288 -13.0015 -11.5959
528 9.14897 13.3293 -18.6335
536 -1.06585 -41.0184 -9.22895
542 10.863 -1.81079 -0.17348
544 -26.6817 1.59602 32.6031
545 -6.88039 -21.6286 4.26868
550 -27.0741 -21.2107 18.8442
551 -3.45773 -3.37053 13.5458
13538 -7.85626 -15.4409 -20.9111
171 -0.697595 4.86681 -10.7238
529 1.08054 9.88264 -6.50951
530 40.3697 -30.4805 -39.8284
531 17.8395 -25.3977 -19.6042
532 -33.6236 -28.5197 48.5711
533 -34.7156 75.716 8.82862
534 -4.86711 6.19806 6.31927
535 -6.10756 -4.89185 -1.12524
543 -7.41049 37.4192 -33.14
547 50.2055 12.0302 -13.9543
548 -11.7385 -12.1069 9.26026
549 23.9675 -12.4298 22.2705
566 32.4246 64.1425 30.5349
567 38.586 9.80544 50.0968
568 -25.7338 8.15905 -4.60387
569 -53.1698 -17.4865 -57.7898
570 26.1101 -15.1074 -4.66737
571 -10.9659 4.73877 -18.0661
572 -7.17049 -22.712 4.50791
13546 33.1091 -31.0294 59.1445
13551 -4.49894 -57.1504 -22.6898
13555 15.4886 67.0231 28.9955
13556 3.74614 4.41338 5.81911
13557 -6.89251 20.7522 8.44105
583 14.7299 7.94143 10.2774
584 -34.2602 94.6203 13.5749
13545 44.9434 66.8176 -11.7045
13547 -26.1247 86.6921 -66.8864
581 20.6501 -86.8915 -19.3879
582 27.0834 6.72573 4.23784
585 8.27283 -13.0015 -11.5958
586 9.14893 13.3293 -18.6335
587 1.08054 9.88265 -6.50951
588 40.3697 -30.4805 -39.8284
589 17.8395 -25.3977 -19.6042
592 -4.86712 6.19806 6.31927
593 -6.10759 -4.89184 -1.12524
594 -1.06585 -41.0184 -9.22895
600 10.863 -1.81078 -0.173475
601 -7.4105 37.4192 -33.14
602 -26.6819 1.59605 32.6031
603 -6.88031 -21.6286 4.26868
605 50.2055 12.0302 -13.9543
606 -11.7385 -12.1068 9.26026
607 23.9675 -12.4298 22.2705
608 -27.0741 -21.2107 18.8442
609 -3.45773 -3.37053 13.5458
13596 -7.85619 -15.4409 -20.9111
13613 15.4886 67.0231 28.9955
13614 3.74611 4.41338 5.81911
229 -0.697597 4.8668 -10.7238
590 -33.6236 -28.5198 48.5711
591 -34.7156 75.716 8.82862
624 32.4246 64.1425 30.5349
625 38.586 9.80543 50.0968
626 -25.7338 8.15905 -4.60386
627 -53.1698 -17.4865 -57.7898
628 26.11 -15.1074 -4.66736
629 -10.9659 4.73877 -18.0661
630 -7.17048 -22.712 4.50791
13603 44.9434 66.8176 -11.7045
13604 33.1091 -31.0294 59.1445
13605 -26.1248 86.6921 -66.8864
13609 -4.49895 -57.1504 -22.6898
13615 -6.89251 20.7522 8.44105
639 20.6502 -86.8915 -19.3879
640 27.0833 6.72574 4.23785
641 14.7299 7.94143 10.2774
642 -34.2603 94.6203 13.5749
643 8.27285 -13.0015 -11.5958
644 9.14895 13.3293 -18.6335
652 -1.06585 -41.0184 -9.22895
658 10.863 -1.81079 -0.173474
661 -6.88035 -21.6286 4.26868
666 -27.0741 -21.2107 18.8442
13654 -7.85623 -15.4409 -20.9111
287 -0.697587 4.86682 -10.7238
645 1.08054 9.88265 -6.50951
646 40.3697 -30.4805 -39.8284
647 17.8395 -25.3977 -19.6042
648 -33.6236 -28.5197 48.5711
649 -34.7156 75.716 8.82863
650 -4.86711 6.19805 6.31927
651 -6.10757 -4.89185 -1.12525
659 -7.4105 37.4192 -33.14
660 -26.6818 1.59604 32.6031
663 50.2055 12.0302 -13.9543
664 -11.7385 -12.1069 9.26026
665 23.9675 -12.4298 22.2705
667 -3.45773 -3.37053 13.5458
682 32.4246 64.1425 30.5349
683 38.586 9.80542 50.0968
684 -25.7338 8.15905 -4.60386
685 -53.1698 -17.4865 -57.7898
13667 -4.49895 -57.1504 -22.6898
13671 15.4886 67.0231 28.9955
13672 3.74612 4.41338 5.8191
13673 -6.89252 20.7522 8.44105
686 26.1101 -15.1074 -4.66736
687 -10.9659 4.73876 -18.0661
688 -7.17049 -22.712 4.5079
13661 44.9434 66.8177 -11.7045
13662 33.1091 -31.0294 59.1446
13663 -26.1247 86.6921 -66.8864
697 20.6501 -86.8915 -19.3879
698 27.0834 6.72575 4.23786
699 14.7299 7.94145 10.2774
700 -34.2602 94.6203 13.5749
701 8.27282 -13.0015 -11.5958
702 9.14893 13.3293 -18.6335
703 1.08054 9.88266 -6.50951
705 17.8395 -25.3977 -19.6042
708 -4.86711 6.19804 6.31928
709 -6.10759 -4.89186 -1.12525
710 -1.06585 -41.0184 -9.22895
716 10.863 -1.81079 -0.17347
717 -7.41051 37.4192 -33.14
718 -26.6819 1.59605 32.6031
719 -6.8803 -21.6286 4.26867
721 50.2055 12.0302 -13.9543
722 -11.7385 -12.1068 9.26025
723 23.9675 -12.4298 22.2705
724 -27.0741 -21.2107 18.8442
725 -3.45773 -3.37053 13.5458
13712 -7.85618 -15.4409 -20.9111
13729 15.4886 67.0231 28.9955
345 -0.697619 4.86682 -10.7238
704 40.3698 -30.4805 -39.8284
706 -33.6236 -28.5197 48.5711
707 -34.7156 75.716 8.82863
740 32.4246 64.1425 30.5349
741 38.5861 9.8054 50.0968
742 -25.7338 8.15906 -4.60386
743 -53.1698 -17.4865 -57.7898
744 26.11 -15.1074 -4.66736
745 -10.9659 4.73875 -18.0661
746 -7.17045 -22.712 4.5079
13719 44.9435 66.8177 -11.7045
13720 33.109 -31.0294 59.1445
13721 -26.1248 86.6921 -66.8864
13725 -4.49895 -57.1504 -22.6898
13730 3.74611 4.41338 5.8191
13731 -6.8925 20.7522 8.44106
755 20.6502 -86.8915 -19.3879
756 27.0833 6.72575 4.23785
757 14.7299 7.94144 10.2774
758 -34.2603 94.6203 13.5749
759 8.27286 -13.0015 -11.5958
774 10.863 -1.81079 -0.173469
403 -0.697605 4.86681 -10.7238
760 9.14896 13.3293 -18.6335
761 1.08054 9.88265 -6.50951
762 40.3698 -30.4805 -39.8284
763 17.8395 -25.3977 -19.6042
764 -33.6236 -28.5197 48.5711
765 -34.7156 75.716 8.82863
766 -4.8671 6.19805 6.31927
767 -6.10757 -4.89185 -1.12525
768 -1.06585 -41.0184 -9.22895
775 -7.4105 37.4192 -33.14
776 -26.6818 1.59604 32.6031
777 -6.88036 -21.6286 4.26867
779 50.2055 12.0302 -13.9543
780 -11.7385 -12.1069 9.26026
781 23.9675 -12.4298 22.2705
782 -27.0741 -21.2107 18.8442
783 -3.45773 -3.37053 13.5458
799 38.5861 9.80542 50.0968
800 -25.7338 8.15906 -4.60385
801 -53.1698 -17.4865 -57.7898
13770 -7.85625 -15.4409 -20.9111
13783 -4.49895 -57.1504 -22.6898
13787 15.4886 67.0231 28.9955
13788 3.74612 4.41338 5.8191
13789 -6.8925 20.7522 8.44105
813 20.6502 -86.8915 -19.388
814 27.0833 6.72575 4.23787
815 14.7299 7.94144 10.2774
816 -34.2603 94.6202 13.5749
817 8.27284 -13.0015 -11.5958
818 9.14895 13.3293 -18.6335
819 1.08054 9.88266 -6.50952
825 -6.10757 -4.89186 -1.12526
826 -1.06584 -41.0184 -9.22895
827 4.53467 3.39255 -5.41273
828 -22.0203 33.5038 -20.3255
829 38.3492 -5.7575 28.1062
830 -49.3319 -6.46288 -13.4983
831 10.9401 24.2615 15.8405
832 10.863 -1.81079 -0.173466
833 -7.41051 37.4192 -33.14
840 -27.0741 -21.2107 18.8442
841 -3.45773 -3.37053 13.5458
806 -50.1181 -6.28432 57.3247
807 33.6604 4.98915 -31.3772
808 40.3739 4.91187 -39.6119
13776 6.99302 28.5666 -33.5635
13780 -49.2511 -144.2 40.6698
13781 -6.94805 -3.91989 7.87754
13782 -7.89889 1.58909 3.48326
1208 26.11 -15.1075 -4.66736
457 -23.5617 -11.5925 0.824089
458 -50.118 -6.28431 57.3247
459 33.6604 4.98914 -31.3772
460 40.3739 4.91186 -39.6118
461 -0.697619 4.86682 -10.7238
462 0.971188 -13.0877 4.37121
463 8.50182 -0.398275 7.39407
464 9.02633 -10.2475 -11.8308
13428 6.99302 28.5666 -33.5635
13433 -6.94806 -3.91989 7.87753
13434 -7.89888 1.58909 3.48325
13436 -6.62012 -70.8489 -49.612
13437 -10.8405 36.4878 44.1622
13438 -4.3858 -6.08777 6.26116
820 40.3698 -30.4805 -39.8284
821 17.8395 -25.3977 -19.6042
822 -33.6237 -28.5198 48.5711
823 -34.7156 75.716 8.82865
824 -4.86709 6.19804 6.31926
839 23.9675 -12.4298 22.2705
860 26.11 -15.1075 -4.66735
871 20.6502 -86.8915 -19.388
873 14.7299 7.94144 10.2774
874 -34.2603 94.6202 13.5749
13432 -49.2511 -144.2 40.6698
519 -0.697652 4.86682 -10.7238
520 0.971216 -13.0877 4.37121
521 8.50184 -0.398271 7.39408
13494 -6.62009 -70.8489 -49.612
13495 -10.8406 36.4878 44.1622
13496 -4.38581 -6.08778 6.26115
872 27.0833 6.72574 4.23787
875 8.27284 -13.0015 -11.5958
876 9.14895 13.3293 -18.6335
877 1.08054 9.88266 -6.50951
878 40.3698 -30.4805 -39.8284
879 17.8394 -25.3977 -19.6042
880 -33.6237 -28.5198 48.5711
881 -34.7157 75.716 8.82864
882 -4.86708 6.19805 6.31927
883 -6.10756 -4.89186 -1.12526
884 -1.06584 -41.0184 -9.22895
885 4.5347 3.39257 -5.41275
886 -22.0203 33.5038 -20.3255
887 38.3492 -5.75751 28.1062
888 -49.3319 -6.46289 -13.4983
889 10.9401 24.2615 15.8405
890 10.863 -1.81078 -0.173473
891 -7.4105 37.4192 -33.14
897 23.9676 -12.4298 22.2705
898 -27.0741 -21.2107 18.8442
899 -3.45773 -3.37053 13.5458
515 -23.5617 -11.5925 0.824091
516 -50.118 -6.28431 57.3247
517 33.6604 4.98914 -31.3772
518 40.3738 4.91186 -39.6119
522 9.02632 -10.2475 -11.8308
13486 6.99302 28.5666 -33.5635
13490 -49.2511 -144.2 40.6698
13491 -6.94804 -3.91989 7.87754
13492 -7.89886 1.58909 3.48326
918 26.11 -15.1075 -4.66736
929 20.6502 -86.8915 -19.3879
930 27.0833 6.72573 4.23785
931 14.7298 7.94144 10.2774
932 -34.2603 94.6202 13.5749
933 8.27287 -13.0015 -11.5958
934 9.14896 13.3293 -18.6335
942 -1.06585 -41.0184 -9.22895
943 4.53471 3.39255 -5.41273
946 -49.332 -6.46288 -13.4983
947 10.9401 24.2615 15.8405
948 10.863 -1.81079 -0.173475
956 -27.0741 -21.2107 18.8442
957 -3.45773 -3.37053 13.5458
573 -23.5617 -11.5925 0.824094
574 -50.1181 -6.28435 57.3248
575 33.6604 4.98916 -31.3772
576 40.3739 4.91188 -39.6119
577 -0.697606 4.86683 -10.7238
578 0.971193 -13.0877 4.37121
579 8.50183 -0.398277 7.39409
580 9.02633 -10.2475 -11.8308
13544 6.99302 28.5666 -33.5635
13550 -7.89889 1.58907 3.48326
13552 -6.62011 -70.8489 -49.612
13553 -10.8405 36.4878 44.1622
13554 -4.3858 -6.08776 6.26114
935 1.08054 9.88265 -6.50951
936 40.3698 -30.4805 -39.8284
937 17.8395 -25.3977 -19.6042
938 -33.6236 -28.5198 48.5711
939 -34.7156 75.716 8.82863
940 -4.8671 6.19805 6.31927
941 -6.10756 -4.89186 -1.12524
944 -22.0203 33.5038 -20.3255
945 38.3492 -5.75749 28.1062
949 -7.4105 37.4192 -33.14
955 23.9675 -12.4298 22.2705
976 26.1101 -15.1074 -4.66737
989 14.7299 7.94145 10.2774
990 -34.2602 94.6202 13.5749
13548 -49.251 -144.2 40.6698
13549 -6.94808 -3.9199 7.87755
13610 -6.62019 -70.8489 -49.612
13612 -4.38575 -6.08777 6.26114
987 20.6501 -86.8915 -19.3879
988 27.0834 6.72575 4.23785
991 8.27282 -13.0015 -11.5958
992 9.14893 13.3293 -18.6335
993 1.08054 9.88265 -6.50951
994 40.3697 -30.4805 -39.8284
995 17.8395 -25.3977 -19.6042
998 -4.86712 6.19804 6.31927
999 -6.10759 -4.89186 -1.12525
1000 -1.06585 -41.0184 -9.22895
1001 4.53459 3.39255 -5.41272
1002 -22.0202 33.5038 -20.3255
1003 38.3493 -5.7575 28.1062
1004 -49.3319 -6.46288 -13.4983
1005 10.9401 24.2615 15.8405
1006 10.863 -1.81079 -0.173469
1007 -7.4105 37.4192 -33.14
1013 23.9675 -12.4298 22.2705
1014 -27.0741 -21.2107 18.8442
1015 -3.45773 -3.37053 13.5458
631 -23.5617 -11.5925 0.824092
632 -50.1181 -6.28433 57.3248
633 33.6604 4.98915 -31.3772
634 40.3739 4.91187 -39.6119
635 -0.697591 4.86683 -10.7238
636 0.971177 -13.0877 4.37122
637 8.50181 -0.398273 7.39409
638 9.02633 -10.2475 -11.8308
13602 6.99302 28.5666 -33.5635
13606 -49.2511 -144.2 40.6698
13607 -6.94806 -3.91989 7.87755
13608 -7.89889 1.58908 3.48327
13611 -10.8405 36.4878 44.1622
996 -33.6236 -28.5198 48.5711
997 -34.7156 75.716 8.82863
1034 26.11 -15.1074 -4.66737
1045 20.6502 -86.8915 -19.3879
1046 27.0833 6.72574 4.23785
1047 14.7299 7.94145 10.2774
1048 -34.2603 94.6202 13.5749
1049 8.27285 -13.0015 -11.5958
1050 9.14896 13.3293 -18.6335
1058 -1.06585 -41.0184 -9.22895
1062 -49.3319 -6.46289 -13.4983
1063 10.9401 24.2615 15.8405
1064 10.863 -1.81079 -0.173461
1072 -27.0741 -21.2107 18.8442
689 -23.5617 -11.5925 0.824092
690 -50.1181 -6.2843 57.3248
691 33.6605 4.98914 -31.3772
693 -0.697594 4.86681 -10.7239
694 0.971175 -13.0877 4.37122
695 8.50181 -0.398269 7.39409
696 9.02633 -10.2475 -11.8308